 Gaussian 09, Revision B.01,
 Gaussian 09:  EM64L-G09RevB.01 12-Aug-2010

 ----------------------------------------------------------------------
 # m062x/6-311+g(2df,2p) opt=(verytight,calcfc,maxcyc=200) freq IOP(2/1
 6=3) nosymm
 ----------------------------------------------------------------------

 -----------------------
 InChI=1S/CH4/h1H4/mult1
 -----------------------
 Symbolic Z-matrix:
 Charge =  0 Multiplicity = 1

 SCF Done:  E(RM062X) =  -40.4984988063     A.U. after    8 cycles
 SCF Done:  E(RM062X) =  -40.4997404803     A.U. after    6 cycles
 SCF Done:  E(RM062X) =  -40.4997433917     A.U. after    5 cycles
 SCF Done:  E(RM062X) =  -40.4997433918     A.U. after    3 cycles
 Optimization completed.
    -- Stationary point found.
 Normal termination of Gaussian 09 at Thu Apr 30 21:31:26 2015.

 ----------------------------------------------------------------------
 #N Geom=AllCheck Guess=TCheck SCRF=Check Test GenChk RM062X/6-311+G(2d
 f,2p) Freq
 ----------------------------------------------------------------------

 InChI=1S/CH4/h1H4/mult1
 -----------------------
 Redundant internal coordinates taken from checkpoint file:
 /scratch/bhoorasingh.p/Gau-12349.chk
 Charge =  0 Multiplicity = 1

                          Input orientation:
 ---------------------------------------------------------------------
 Center     Atomic      Atomic             Coordinates (Angstroms)
 Number     Number       Type             X           Y           Z
 ---------------------------------------------------------------------
      1          6           0        0.000034   -0.000052    0.000064
      2          1           0        0.906230   -0.595950    0.070693
      3          1           0        0.216500    0.927362   -0.523575
      4          1           0       -0.365099    0.224558    0.998769
      5          1           0       -0.757664   -0.555918   -0.545950
 ---------------------------------------------------------------------

 SCF Done:  E(RM062X) =  -40.4997433918     A.U. after    1 cycles

 Alpha  occ. eigenvalues --  -10.51344  -0.78670  -0.45664  -0.45655  -0.45654
 Alpha virt. eigenvalues --    0.02210   0.06084   0.06085   0.06085   0.18210
 Alpha virt. eigenvalues --    0.18210   0.18213   0.22904   0.43009   0.43009
 Alpha virt. eigenvalues --    0.43011   0.54184   0.54190   0.55097   0.55097

 Mulliken atomic charges:
              1
     1  C   -0.413996
     2  H    0.103461
     3  H    0.103520
     4  H    0.103520
     5  H    0.103496
 Sum of Mulliken atomic charges =   0.00000

 Dipole moment (field-independent basis, Debye):
    X=             -0.0001    Y=              0.0001    Z=              0.0000  Tot=              0.0001
 Quadrupole moment (field-independent basis, Debye-Ang):
   XX=             -8.4346   YY=             -8.4360   ZZ=             -8.4358
   XY=             -0.0001   XZ=             -0.0005   YZ=              0.0001

  Exact polarizability:  15.035   0.007  15.037  -0.001   0.025  15.072
 Approx polarizability:  16.079   0.000  16.077  -0.001   0.000  16.077

                     1                      2                      3
                     A                      A                      A
 Frequencies --  1339.5408              1341.4216              1346.0527
 Red. masses --     1.1792                 1.1792                 1.1792
 Frc consts  --     1.2466                 1.2501                 1.2588
 IR Inten    --    13.1545                13.2175                13.1952

                     4                      5                      6
                     A                      A                      A
 Frequencies --  1563.9142              1568.8992              3051.5865
 Red. masses --     1.0078                 1.0079                 1.0078
 Frc consts  --     1.4523                 1.4616                 5.5296
 IR Inten    --     0.0005                 0.0016                 0.0036

                     7                      8                      9
                     A                      A                      A
 Frequencies --  3164.2875              3165.6862              3168.0162
 Red. masses --     1.1014                 1.1014                 1.1016
 Frc consts  --     6.4975                 6.5032                 6.5140
 IR Inten    --    14.9393                14.5739                14.4375

 - Thermochemistry -
 -------------------
 Temperature   298.150 Kelvin.  Pressure   1.00000 Atm.
 Atom     1 has atomic number  6 and mass  12.00000

 Molecular mass:    16.03130 amu.
 Principal axes and moments of inertia in atomic units:
                           1         2         3
     Eigenvalues --    11.33415  11.33736  11.33793
           X            0.93569   0.32224  -0.14368
           Y           -0.11689   0.66736   0.73550
           Z           -0.33289   0.67141  -0.66211
 This molecule is an asymmetric top.
 Rotational symmetry number  1.
 Rotational temperatures (Kelvin)      7.64185     7.63968     7.63930
 Rotational constants (GHZ):         159.23043   159.18538   159.17736
 Zero-point vibrational energy     117888.4 (Joules/Mol)
                                   28.17601 (Kcal/Mol)
 Vibrational temperatures:   1927.30  1930.00  1936.67  2250.12  2257.29
          (Kelvin)           4390.55  4552.70  4554.71  4558.06

 Zero-point correction=                           0.044901 (Hartree/Particle)
 Thermal correction to Energy=                    0.047770
 Thermal correction to Enthalpy=                  0.048714
 Thermal correction to Gibbs Free Energy=         0.025248
 Sum of electronic and zero-point Energies=            -40.454842
 Sum of electronic and thermal Energies=               -40.451974
 Sum of electronic and thermal Enthalpies=             -40.451030
 Sum of electronic and thermal Free Energies=          -40.474495

                     E (Thermal)             CV                S
                      KCal/Mol        Cal/Mol-Kelvin    Cal/Mol-Kelvin
 Total                   29.976              6.466             49.388
 Electronic               0.000              0.000              0.000
 Translational            0.889              2.981             34.261
 Rotational               0.889              2.981             15.040
 Vibrational             28.198              0.505              0.086

 Optimization completed.
    -- Stationary point found.
 Normal termination of Gaussian 09 at Thu Apr 30 21:31:35 2015.
